/*--------------------------------*- C++ -*----------------------------------*\
| =========                 |                                                 |
| \\      /  F ield         | OpenFOAM: The Open Source CFD Toolbox           |
|  \\    /   O peration     | Version:  2.1.1                                 |
|   \\  /    A nd           | Web:      www.OpenFOAM.org                      |
|    \\/     M anipulation  |                                                 |
\*---------------------------------------------------------------------------*/
FoamFile
{
    version     2.0;
    format      ascii;
    class       volScalarField;
    location    "0";
    object      k;
}
// * * * * * * * * * * * * * * * * * * * * * * * * * * * * * * * * * * * * * //

# include "../../../Setup/caseSetup"

dimensions      [0 2 -2 0 0 0 0];
internalField   uniform 0;

boundaryField
{
    inlet
    {
	type            fixedValue;
        value           uniform $turbulentKE;
    }

   outlet
   {
	type            inletOutlet;
	inletValue      uniform 0.0;
	value           uniform 0;
   }     

    "(building.*)"
    {
        type            kqRWallFunction;
        value           uniform 0;
    }
    
    # include "../../../Setup/commonPatches"  
}

// ************************************************************************* //
