/*--------------------------------*- C++ -*----------------------------------*\
| =========                 |                                                 |
| \\      /  F ield         | OpenFOAM: The Open Source CFD Toolbox           |
|  \\    /   O peration     | Version:  2.2.0                                 |
|   \\  /    A nd           | Web:      www.OpenFOAM.org                      |
|    \\/     M anipulation  |                                                 |
\*---------------------------------------------------------------------------*/
FoamFile
{
    version     2.0;
    format      ascii;
    class       volScalarField;
    object      omega;
}
// * * * * * * * * * * * * * * * * * * * * * * * * * * * * * * * * * * * * * //

# include "../../../Setup/caseSetup"

dimensions      [0 0 -1 0 0 0 0];
internalField   uniform $turbulentOmega;

boundaryField
{
    inlet
    {
	type          fixedValue;
        value         $internalField;
    }

   outlet
   {
      type            inletOutlet;
      inletValue      uniform 0.0;
      value           $internalField;
   }    

   "(building.*)"
    {
        type            omegaWallFunction;
        value           $internalField;
    }
    
    # include "../../../Setup/commonPatches"   
}

// ************************************************************************* //
