/*--------------------------------*- C++ -*----------------------------------*\
| =========                 |                                                 |
| \\      /  F ield         | OpenFOAM: The Open Source CFD Toolbox           |
|  \\    /   O peration     | Version:  2.1.1                                 |
|   \\  /    A nd           | Web:      www.OpenFOAM.org                      |
|    \\/     M anipulation  |                                                 |
\*---------------------------------------------------------------------------*/
FoamFile
{
    version     2.0;
    format      ascii;
    class       volScalarField;
    location    "0";
    object      k;
}
// * * * * * * * * * * * * * * * * * * * * * * * * * * * * * * * * * * * * * //

# include "../../../Setup/caseSetup"

dimensions      [0 2 -2 0 0 0 0];
internalField   uniform $turbulentKE;

boundaryField
{
    inlet
    {
	type                mapped;
        value               $internalField;
        interpolationScheme cell;
        setAverage          false;
        average             $turbulentKE;
    }   

    outlet
   {
	type            inletOutlet;
	inletValue      uniform 0.0;
	value           $internalField;
   }  

   "(building.*)"
    {
        type            kqRWallFunction;
        value           uniform 0;
    }

    # include "../../../Setup/commonPatches"   
}

// ************************************************************************* //
