/*--------------------------------*- C++ -*----------------------------------*\
| =========                 |                                                 |
| \\      /  F ield         | OpenFOAM: The Open Source CFD Toolbox           |
|  \\    /   O peration     | Version:  2.1.1                                 |
|   \\  /    A nd           | Web:      www.OpenFOAM.org                      |
|    \\/     M anipulation  |                                                 |
\*---------------------------------------------------------------------------*/
FoamFile
{
    version     2.0;
    format      ascii;
    class       volScalarField;
    location    "0";
    object      nuTilda;
}
// * * * * * * * * * * * * * * * * * * * * * * * * * * * * * * * * * * * * * //

dimensions      [0 2 -1 0 0 0 0];

internalField   uniform 0;

boundaryField
{
    inlet
    {
        type                mapped;
        value               uniform 0;
        interpolationScheme cell;
        setAverage          false;
        average             0;
    }

    outlet
    {
	type            inletOutlet;
        inletValue      uniform 0.00;
        value           uniform 0.00;
    }  

   "(building.*)"
    {
        type            fixedValue;
	value		uniform 0;
    }
    
    # include "../../../Setup/commonPatches"   
}

// ************************************************************************* //
